#INFO: **** input file is /projects/anma2640/VMC/dqmc_tests/h10_dz/3.2/10_casscf/hChain.py ****
import numpy
from pyscf import gto, scf, mcscf, fci, ao2mo, lib, tools, cc
from pauxy.utils.from_pyscf import generate_integrals
import prepVMC

r = 3.2
atomstring = ""
for i in range(10):
  atomstring += "H 0 0 %g\n"%(i*r)
mol = gto.M(
    atom=atomstring,
    basis='ccpvdz',
    verbose=4,
    unit='bohr',
    symmetry=0,
    spin=0)
mf = scf.RHF(mol)
mf.kernel()
norb = mol.nao

# uhf
dm = [numpy.zeros((norb, norb)), numpy.zeros((norb, norb))]
for i in range(mol.nao//10):
  dm[0][10*i, 10*i] = 1.
  dm[1][10*i+1, 10*i+1] = 1.
umf = prepVMC.doUHF(mol, dm)

# integrals in the canonical orbital basis
mc = mcscf.CASSCF(mf, 10, 10)
mc.kernel()

norbAct = 10
moAct = mc.mo_coeff[:, :norbAct]
h1 = moAct.T.dot(mf.get_hcore()).dot(moAct)
eri = ao2mo.kernel(mol, moAct)
tools.fcidump.from_integrals('FCIDUMP_can', h1, eri, norbAct, mol.nelectron, mf.energy_nuc())

# set up dqmc calculation
rhfCoeffs = numpy.eye(norb)
prepVMC.writeMat(rhfCoeffs, "rhf.txt")
overlap = mf.get_ovlp(mol)
uhfCoeffs = numpy.empty((norb, 2*norb))
uhfCoeffs[::,:mol.nao] = prepVMC.basisChange(umf.mo_coeff[0], mf.mo_coeff, overlap)
uhfCoeffs[::,mol.nao:] = prepVMC.basisChange(umf.mo_coeff[1], mf.mo_coeff, overlap)
prepVMC.writeMat(uhfCoeffs, "uhf.txt")

# cholesky integrals using this funtion in pauxy
h1e, chol, nelec, enuc = generate_integrals(mol, mf.get_hcore(), mc.mo_coeff, chol_cut=1e-5, verbose=True)

nbasis = h1e.shape[-1]
print(f'nelec: {nelec}')
print(f'nbasis: {nbasis}')
print(f'chol.shape: {chol.shape}')
chol = chol.reshape((-1, nbasis, nbasis))
v0 = 0.5 * numpy.einsum('nik,njk->ij', chol, chol, optimize='optimal')
h1e_mod = h1e - v0
chol = chol.reshape((chol.shape[0], -1))
prepVMC.write_dqmc(h1e, h1e_mod, chol, sum(mol.nelec), nbasis, enuc, filename='FCIDUMP_chol')

# ccsd
mycc = cc.CCSD(mf)
mycc.frozen = 0
mycc.verbose = 5
mycc.kernel()
#prepVMC.write_ccsd(mycc.t1, mycc.t2)

et = mycc.ccsd_t()
print('CCSD(T) energy', mycc.e_tot + et)
#INFO: ******************** input file end ********************


System: uname_result(system='Linux', node='bhpc-c7-u31-5.rc.int.colorado.edu', release='3.10.0-1160.15.2.el7.x86_64', version='#1 SMP Wed Feb 3 15:06:38 UTC 2021', machine='x86_64', processor='x86_64')  Threads 36
Python 3.8.3 (default, May 19 2020, 18:47:26) 
[GCC 7.3.0]
numpy 1.19.1  scipy 1.5.2
Date: Thu Jan 13 00:35:43 2022
PySCF version 1.7.4
PySCF path  /projects/anma2640/pyscf/pyscf
GIT HEAD      ref: refs/heads/master
GIT master branch  14142ec394cbdcffb8e214fba6b1d6cde9025e9a

[CONFIG] conf_file None
[INPUT] verbose = 4
[INPUT] num. atoms = 10
[INPUT] num. electrons = 10
[INPUT] charge = 0
[INPUT] spin (= nelec alpha-beta = 2S) = 0
[INPUT] symmetry 0 subgroup None
[INPUT] Mole.unit = bohr
[INPUT]  1 H      0.000000000000   0.000000000000   0.000000000000 AA    0.000000000000   0.000000000000   0.000000000000 Bohr
[INPUT]  2 H      0.000000000000   0.000000000000   1.693367074944 AA    0.000000000000   0.000000000000   3.200000000000 Bohr
[INPUT]  3 H      0.000000000000   0.000000000000   3.386734149888 AA    0.000000000000   0.000000000000   6.400000000000 Bohr
[INPUT]  4 H      0.000000000000   0.000000000000   5.080101224832 AA    0.000000000000   0.000000000000   9.600000000000 Bohr
[INPUT]  5 H      0.000000000000   0.000000000000   6.773468299776 AA    0.000000000000   0.000000000000  12.800000000000 Bohr
[INPUT]  6 H      0.000000000000   0.000000000000   8.466835374720 AA    0.000000000000   0.000000000000  16.000000000000 Bohr
[INPUT]  7 H      0.000000000000   0.000000000000  10.160202449664 AA    0.000000000000   0.000000000000  19.200000000000 Bohr
[INPUT]  8 H      0.000000000000   0.000000000000  11.853569524608 AA    0.000000000000   0.000000000000  22.400000000000 Bohr
[INPUT]  9 H      0.000000000000   0.000000000000  13.546936599552 AA    0.000000000000   0.000000000000  25.600000000000 Bohr
[INPUT] 10 H      0.000000000000   0.000000000000  15.240303674496 AA    0.000000000000   0.000000000000  28.800000000000 Bohr

nuclear repulsion = 6.02802579365079
number of shells = 30
number of NR pGTOs = 70
number of NR cGTOs = 50
basis = ccpvdz
ecp = {}
CPU time:         0.66


******** <class 'pyscf.scf.hf.RHF'> ********
method = RHF
initial guess = minao
damping factor = 0
level_shift factor = 0
DIIS = <class 'pyscf.scf.diis.CDIIS'>
diis_start_cycle = 1
diis_space = 8
SCF conv_tol = 1e-09
SCF conv_tol_grad = None
SCF max_cycles = 50
direct_scf = True
direct_scf_tol = 1e-13
chkfile to save SCF result = /rc_scratch/anma2640/tmptivifmyw
max_memory 4000 MB (current use 82 MB)
Set gradient conv threshold to 3.16228e-05
init E= -3.44873542131458
  HOMO = -0.213454988939114  LUMO = -0.148359631188999
cycle= 1 E= -4.83652379500598  delta_E= -1.39  |g|= 0.103  |ddm|= 1.65
  HOMO = -0.320767273781439  LUMO = -0.137095106414153
cycle= 2 E= -4.85053790582419  delta_E= -0.014  |g|= 0.0459  |ddm|= 0.242
  HOMO = -0.331353211340709  LUMO = -0.120786313107065
cycle= 3 E= -4.85621630158686  delta_E= -0.00568  |g|= 0.0222  |ddm|= 0.177
  HOMO = -0.342619595858986  LUMO = -0.112598526935204
cycle= 4 E= -4.85771504269582  delta_E= -0.0015  |g|= 0.00336  |ddm|= 0.13
  HOMO = -0.342208298730724  LUMO = -0.110513728637299
cycle= 5 E= -4.85773764337523  delta_E= -2.26e-05  |g|= 0.000748  |ddm|= 0.0153
  HOMO = -0.342277470857674  LUMO = -0.110726321597302
cycle= 6 E= -4.85773856508846  delta_E= -9.22e-07  |g|= 0.000153  |ddm|= 0.0028
  HOMO = -0.342360823083414  LUMO = -0.110631911120191
cycle= 7 E= -4.85773862442611  delta_E= -5.93e-08  |g|= 1.88e-05  |ddm|= 0.000907
  HOMO = -0.342346908816318  LUMO = -0.110641286958786
cycle= 8 E= -4.85773862493662  delta_E= -5.11e-10  |g|= 2.47e-06  |ddm|= 7.89e-05
  HOMO = -0.342348001316365  LUMO = -0.110640609016379
Extra cycle  E= -4.85773862494539  delta_E= -8.77e-12  |g|= 1.12e-06  |ddm|= 6.75e-06
converged SCF energy = -4.85773862494539


******** <class 'pyscf.scf.uhf.UHF'> ********
method = UHF
initial guess = minao
damping factor = 0
level_shift factor = 0
DIIS = <class 'pyscf.scf.diis.CDIIS'>
diis_start_cycle = 1
diis_space = 8
SCF conv_tol = 1e-09
SCF conv_tol_grad = None
SCF max_cycles = 50
direct_scf = True
direct_scf_tol = 1e-13
chkfile to save SCF result = /rc_scratch/anma2640/tmpjc8dblil
max_memory 4000 MB (current use 145 MB)
number electrons alpha = 5  beta = 5
Set gradient conv threshold to 3.16228e-05
init E= -3.33494820545107
  alpha nocc = 5  HOMO = -0.261162547935773  LUMO = -0.23407440198476
  beta  nocc = 5  HOMO = -0.216793458920203  LUMO = -0.143782717760406
cycle= 1 E= -4.13562598825845  delta_E= -0.801  |g|= 0.514  |ddm|=  2.7
  alpha nocc = 5  HOMO = -0.265897320174188  LUMO = -0.17666710242472
  beta  nocc = 5  HOMO = -0.272851462843064  LUMO = -0.116622342521345
cycle= 2 E= -3.29132422676066  delta_E= 0.844  |g|= 0.543  |ddm|= 2.09
  alpha nocc = 5  HOMO = -0.278349732244879  LUMO = -0.139409928905194
  beta  nocc = 5  HOMO = -0.29498079551752  LUMO = -0.10129414162594
cycle= 3 E= -4.54683811585624  delta_E= -1.26  |g|= 0.271  |ddm|= 1.92
  alpha nocc = 5  HOMO = -0.214208794701084  LUMO = -0.198631841797499
  beta  nocc = 5  HOMO = -0.259069306642246  LUMO = -0.166845792796467
cycle= 4 E= -4.64861796298359  delta_E= -0.102  |g|= 0.167  |ddm|= 0.357
  alpha nocc = 5  HOMO = -0.27080429570195  LUMO = -0.148572995120757
  beta  nocc = 5  HOMO = -0.255698394183629  LUMO = -0.173975861449022
cycle= 5 E= -4.56923931650713  delta_E= 0.0794  |g|= 0.258  |ddm|= 1.43
  alpha nocc = 5  HOMO = -0.247125898282509  LUMO = -0.171190578762856
  beta  nocc = 5  HOMO = -0.252151136600811  LUMO = -0.17602184740487
cycle= 6 E= -4.60140519155903  delta_E= -0.0322  |g|= 0.224  |ddm|= 0.0952
  alpha nocc = 5  HOMO = -0.218530296225185  LUMO = -0.19767154230169
  beta  nocc = 5  HOMO = -0.230933441780836  LUMO = -0.193585120722129
cycle= 7 E= -4.65973933626054  delta_E= -0.0583  |g|= 0.18  |ddm|= 0.216
  alpha nocc = 5  HOMO = -0.220073342952697  LUMO = -0.196431263699795
  beta  nocc = 5  HOMO = -0.234031980420612  LUMO = -0.190163454706705
cycle= 8 E= -4.66175210942168  delta_E= -0.00201  |g|= 0.183  |ddm|= 0.0217
  alpha nocc = 5  HOMO = -0.21498252305747  LUMO = -0.202580334573382
  beta  nocc = 5  HOMO = -0.2210495809711  LUMO = -0.202519834818352
cycle= 9 E= -4.71777658016653  delta_E= -0.056  |g|= 0.185  |ddm|= 0.219
  alpha nocc = 5  HOMO = -0.220193643895809  LUMO = -0.196495832433765
  beta  nocc = 5  HOMO = -0.215690866976005  LUMO = -0.209579585154844
cycle= 10 E= -4.90821386195223  delta_E= -0.19  |g|= 0.167  |ddm|= 0.903
  alpha nocc = 5  HOMO = -0.27039160272089  LUMO = -0.149950082507231
  beta  nocc = 5  HOMO = -0.232465809341447  LUMO = -0.193816531245773
cycle= 11 E= -4.98375346693413  delta_E= -0.0755  |g|= 0.124  |ddm|= 0.313
  alpha nocc = 5  HOMO = -0.320960098959003  LUMO = -0.0968034253173053
  beta  nocc = 5  HOMO = -0.274427678352244  LUMO = -0.138817318705489
cycle= 12 E= -5.01161643867411  delta_E= -0.0279  |g|= 0.0763  |ddm|= 0.244
  alpha nocc = 5  HOMO = -0.348457735394419  LUMO = -0.0598453806770372
  beta  nocc = 5  HOMO = -0.308277549845718  LUMO = -0.0991482717101351
cycle= 13 E= -5.01699760989757  delta_E= -0.00538  |g|= 0.0605  |ddm|= 0.0901
  alpha nocc = 5  HOMO = -0.378053566586521  LUMO = -0.0294084934069434
  beta  nocc = 5  HOMO = -0.32695839201667  LUMO = -0.0755834655793384
cycle= 14 E= -5.01951250859353  delta_E= -0.00251  |g|= 0.0537  |ddm|= 0.0671
  alpha nocc = 5  HOMO = -0.386260422998025  LUMO = -0.0249429574282862
  beta  nocc = 5  HOMO = -0.337420047921427  LUMO = -0.0639228746286996
cycle= 15 E= -5.02170698302243  delta_E= -0.00219  |g|= 0.0457  |ddm|= 0.0432
  alpha nocc = 5  HOMO = -0.413769164112527  LUMO = 0.00328656546526203
  beta  nocc = 5  HOMO = -0.395549140683283  LUMO = -0.00662264132166365
cycle= 16 E= -5.02576623874634  delta_E= -0.00406  |g|= 0.0179  |ddm|= 0.103
  alpha nocc = 5  HOMO = -0.417310386480787  LUMO = 0.0102788341758224
  beta  nocc = 5  HOMO = -0.411958451568994  LUMO = 0.00744459751830208
cycle= 17 E= -5.02643815944919  delta_E= -0.000672  |g|= 0.00486  |ddm|= 0.0465
  alpha nocc = 5  HOMO = -0.418910524818259  LUMO = 0.0127311795628343
  beta  nocc = 5  HOMO = -0.418593338058763  LUMO = 0.0130441284866231
cycle= 18 E= -5.02649761943789  delta_E= -5.95e-05  |g|= 0.000759  |ddm|= 0.0179
  alpha nocc = 5  HOMO = -0.418101925045049  LUMO = 0.0121390162160653
  beta  nocc = 5  HOMO = -0.41810591324973  LUMO = 0.0123402968316709
cycle= 19 E= -5.02649903876621  delta_E= -1.42e-06  |g|= 0.000235  |ddm|= 0.00271
  alpha nocc = 5  HOMO = -0.418294592104348  LUMO = 0.0123619884399016
  beta  nocc = 5  HOMO = -0.41825867908389  LUMO = 0.0123800025900213
cycle= 20 E= -5.02649921841053  delta_E= -1.8e-07  |g|= 6.2e-05  |ddm|= 0.000877
  alpha nocc = 5  HOMO = -0.418244000352163  LUMO = 0.01235356974908
  beta  nocc = 5  HOMO = -0.418238728960587  LUMO = 0.0123584934622409
cycle= 21 E= -5.0264992317754  delta_E= -1.34e-08  |g|= 1.92e-05  |ddm|= 0.000259
  alpha nocc = 5  HOMO = -0.41824947957385  LUMO = 0.0123653019020211
  beta  nocc = 5  HOMO = -0.418246531346452  LUMO = 0.0123664562683499
cycle= 22 E= -5.02649923270639  delta_E= -9.31e-10  |g|= 4.77e-06  |ddm|= 6.35e-05
  alpha nocc = 5  HOMO = -0.418249556045227  LUMO = 0.0123659002756674
  beta  nocc = 5  HOMO = -0.418247702101783  LUMO = 0.0123661856055385
Extra cycle  E= -5.02649923275082  delta_E= -4.44e-11  |g|= 2.61e-06  |ddm|= 8.16e-06
converged SCF energy = -5.02649923275082  <S^2> = 3.6051653  2S+1 = 3.926915
-5.026499232750815

******** <class 'pyscf.mcscf.mc1step.CASSCF'> ********
CAS (5e+5e, 10o), ncore = 0, nvir = 40
max_cycle_macro = 50
max_cycle_micro = 4
conv_tol = 1e-07
conv_tol_grad = None
orbital rotation max_stepsize = 0.02
augmented hessian ah_max_cycle = 30
augmented hessian ah_conv_tol = 1e-12
augmented hessian ah_linear dependence = 1e-14
augmented hessian ah_level shift = 0
augmented hessian ah_start_tol = 2.5
augmented hessian ah_start_cycle = 3
augmented hessian ah_grad_trust_region = 3
kf_trust_region = 3
kf_interval = 4
ci_response_space = 4
ci_grad_trust_region = 3
with_dep4 0
natorb = False
canonicalization = True
sorting_mo_energy = False
ao2mo_level = 2
chkfile = /rc_scratch/anma2640/tmptivifmyw
max_memory 4000 MB (current use 160 MB)
internal_rotation = False
******** <class 'pyscf.fci.direct_spin1.FCISolver'> ********
max. cycles = 50
conv_tol = 1e-08
davidson only = False
linear dependence = 1e-10
level shift = 0.001
max iter space = 12
max_memory 4000 MB
nroots = 1
pspace_size = 400
spin = None
CASCI E = -5.11034332796575  S^2 = 0.0000000
Set conv_tol_grad to 0.000316228
macro iter 1 (17 JK  4 micro), CASSCF E = -5.18050498432307  dE = -0.070161656  S^2 = 0.0000000
               |grad[o]|=0.168  |grad[c]|= 0.07075933068846535  |ddm|=0.158
macro iter 2 (6 JK  2 micro), CASSCF E = -5.18053513234346  dE = -3.014802e-05  S^2 = 0.0000000
               |grad[o]|=0.00516  |grad[c]|= 0.0006465483964643019  |ddm|=0.00523
macro iter 3 (3 JK  1 micro), CASSCF E = -5.18053529337586  dE = -1.610324e-07  S^2 = 0.0000000
               |grad[o]|=0.000326  |grad[c]|= 8.456792167533636e-05  |ddm|=0.000385
macro iter 4 (3 JK  1 micro), CASSCF E = -5.18053530966411  dE = -1.6288253e-08  S^2 = 0.0000000
               |grad[o]|=3.86e-05  |grad[c]|= 6.481146571920621e-05  |ddm|=0.000276
1-step CASSCF converged in 4 macro (29 JK 8 micro) steps
CASSCF canonicalization
Density matrix diagonal elements [1.81903655 1.79113187 1.73772429 1.64412605 1.48627277 0.53160624
 0.36341183 0.25936615 0.19920012 0.16812412]
CASSCF energy = -5.18053530966411
CASCI E = -5.18053530966411  E(CI) = -11.2085611033149  S^2 = 0.0000000
 # Transforming hcore and eri to ortho AO basis.
 # Performing modified Cholesky decomposition on ERI tensor.
# Generating Cholesky decomposition of ERIs.
# max number of cholesky vectors = 500
# iteration     0: delta_max = 0.897252
# iteration     1: delta_max = 8.95908107e-01: time = 7.13252928e-04
# iteration     2: delta_max = 8.86500865e-01: time = 8.10348894e-04
# iteration     3: delta_max = 8.59237867e-01: time = 7.03456812e-04
# iteration     4: delta_max = 8.44910622e-01: time = 8.03770032e-04
# iteration     5: delta_max = 7.68338380e-01: time = 6.99219294e-04
# iteration     6: delta_max = 7.10275818e-01: time = 8.09469260e-04
# iteration     7: delta_max = 7.09880533e-01: time = 8.24623276e-04
# iteration     8: delta_max = 7.08319116e-01: time = 7.26746861e-04
# iteration     9: delta_max = 7.07549640e-01: time = 7.98007939e-04
# iteration    10: delta_max = 1.52608083e-01: time = 7.36655667e-04
# iteration    11: delta_max = 1.52608083e-01: time = 9.77094658e-03
# iteration    12: delta_max = 1.52608081e-01: time = 7.40667339e-04
# iteration    13: delta_max = 1.52608081e-01: time = 8.13912600e-04
# iteration    14: delta_max = 1.52607788e-01: time = 7.31877051e-04
# iteration    15: delta_max = 1.52607788e-01: time = 8.17823689e-04
# iteration    16: delta_max = 1.52591831e-01: time = 7.38179311e-04
# iteration    17: delta_max = 1.52591831e-01: time = 8.22145026e-04
# iteration    18: delta_max = 1.52578181e-01: time = 7.24423677e-04
# iteration    19: delta_max = 1.52578181e-01: time = 8.27982090e-04
# iteration    20: delta_max = 1.51648593e-01: time = 7.68603757e-04
# iteration    21: delta_max = 1.51648593e-01: time = 8.31971876e-04
# iteration    22: delta_max = 1.50737210e-01: time = 7.53986184e-04
# iteration    23: delta_max = 1.50737210e-01: time = 7.49036670e-04
# iteration    24: delta_max = 1.50735838e-01: time = 8.23550858e-04
# iteration    25: delta_max = 1.50735838e-01: time = 7.58052804e-04
# iteration    26: delta_max = 1.50734713e-01: time = 7.53031578e-04
# iteration    27: delta_max = 1.50734713e-01: time = 7.51238782e-04
# iteration    28: delta_max = 1.50732874e-01: time = 7.47281127e-04
# iteration    29: delta_max = 1.50732874e-01: time = 7.77950976e-04
# iteration    30: delta_max = 1.47883795e-01: time = 8.51642806e-04
# iteration    31: delta_max = 1.47883783e-01: time = 8.47398303e-04
# iteration    32: delta_max = 1.42610657e-01: time = 8.47840216e-04
# iteration    33: delta_max = 1.42610549e-01: time = 8.42551235e-04
# iteration    34: delta_max = 1.38564410e-01: time = 8.55925959e-04
# iteration    35: delta_max = 1.38564410e-01: time = 8.57528765e-04
# iteration    36: delta_max = 1.38459012e-01: time = 8.61491077e-04
# iteration    37: delta_max = 1.34363735e-01: time = 8.59993044e-04
# iteration    38: delta_max = 1.34309644e-01: time = 8.60555097e-04
# iteration    39: delta_max = 1.34302481e-01: time = 8.52880999e-04
# iteration    40: delta_max = 1.14516427e-01: time = 1.25246728e-03
# iteration    41: delta_max = 1.14515878e-01: time = 7.69322272e-04
# iteration    42: delta_max = 1.13246171e-01: time = 8.71019904e-04
# iteration    43: delta_max = 1.13245264e-01: time = 8.52042809e-04
# iteration    44: delta_max = 1.13209315e-01: time = 8.64527654e-04
# iteration    45: delta_max = 1.13111392e-01: time = 8.60418193e-04
# iteration    46: delta_max = 1.12964915e-01: time = 8.66033137e-04
# iteration    47: delta_max = 1.12956019e-01: time = 8.63176305e-04
# iteration    48: delta_max = 1.12842624e-01: time = 8.63898080e-04
# iteration    49: delta_max = 1.12825699e-01: time = 8.63709953e-04
# iteration    50: delta_max = 1.11320084e-01: time = 9.39806923e-04
# iteration    51: delta_max = 1.11319878e-01: time = 8.54792073e-04
# iteration    52: delta_max = 1.10408136e-01: time = 8.52174126e-04
# iteration    53: delta_max = 1.10407988e-01: time = 8.67243856e-04
# iteration    54: delta_max = 1.10362393e-01: time = 8.67919065e-04
# iteration    55: delta_max = 1.10360975e-01: time = 8.63347203e-04
# iteration    56: delta_max = 1.10171287e-01: time = 8.63045920e-04
# iteration    57: delta_max = 1.10159887e-01: time = 9.55248252e-04
# iteration    58: delta_max = 1.10156772e-01: time = 8.56257044e-04
# iteration    59: delta_max = 1.10138184e-01: time = 8.73011071e-04
# iteration    60: delta_max = 1.03105441e-01: time = 8.70333984e-04
# iteration    61: delta_max = 1.03105416e-01: time = 8.80775973e-04
# iteration    62: delta_max = 9.69295654e-02: time = 9.02542844e-04
# iteration    63: delta_max = 9.68924471e-02: time = 8.86473805e-04
# iteration    64: delta_max = 9.68553392e-02: time = 8.77858140e-04
# iteration    65: delta_max = 9.34133818e-02: time = 8.78919847e-04
# iteration    66: delta_max = 9.01314726e-02: time = 8.76417384e-04
# iteration    67: delta_max = 9.01060979e-02: time = 8.79523344e-04
# iteration    68: delta_max = 9.00778717e-02: time = 8.85482877e-04
# iteration    69: delta_max = 9.00521633e-02: time = 1.62863638e-03
# iteration    70: delta_max = 4.81052271e-02: time = 8.87458213e-04
# iteration    71: delta_max = 4.81052271e-02: time = 8.88457056e-04
# iteration    72: delta_max = 4.81052271e-02: time = 8.90814234e-04
# iteration    73: delta_max = 4.81052040e-02: time = 8.99977982e-04
# iteration    74: delta_max = 4.81051817e-02: time = 4.05933009e-03
# iteration    75: delta_max = 4.80824690e-02: time = 1.11806067e-03
# iteration    76: delta_max = 4.80597876e-02: time = 8.99761915e-04
# iteration    77: delta_max = 4.80597856e-02: time = 8.92004929e-04
# iteration    78: delta_max = 4.80597851e-02: time = 9.13509168e-04
# iteration    79: delta_max = 4.80597830e-02: time = 8.91124364e-04
# iteration    80: delta_max = 4.78620263e-02: time = 8.95272009e-04
# iteration    81: delta_max = 4.78620263e-02: time = 8.94818921e-04
# iteration    82: delta_max = 4.78620263e-02: time = 8.99744220e-04
# iteration    83: delta_max = 4.78620263e-02: time = 8.96058977e-04
# iteration    84: delta_max = 4.76170265e-02: time = 8.97430349e-04
# iteration    85: delta_max = 4.76170265e-02: time = 9.02386848e-04
# iteration    86: delta_max = 4.76167832e-02: time = 9.15311277e-04
# iteration    87: delta_max = 4.76167832e-02: time = 9.08975955e-04
# iteration    88: delta_max = 4.76165396e-02: time = 8.96344893e-04
# iteration    89: delta_max = 4.76165396e-02: time = 8.98759812e-04
# iteration    90: delta_max = 4.72714757e-02: time = 8.93989112e-04
# iteration    91: delta_max = 4.72714757e-02: time = 9.12136864e-04
# iteration    92: delta_max = 4.69292591e-02: time = 9.04025044e-04
# iteration    93: delta_max = 4.69292591e-02: time = 1.41080795e-03
# iteration    94: delta_max = 4.69280696e-02: time = 9.08724032e-04
# iteration    95: delta_max = 4.69280696e-02: time = 9.05821100e-04
# iteration    96: delta_max = 4.69267737e-02: time = 8.96028243e-04
# iteration    97: delta_max = 4.69267737e-02: time = 9.10321251e-04
# iteration    98: delta_max = 4.69255761e-02: time = 8.99114646e-04
# iteration    99: delta_max = 4.69255761e-02: time = 8.98653176e-04
# iteration   100: delta_max = 4.04606620e-02: time = 8.77826940e-04
# iteration   101: delta_max = 4.04386473e-02: time = 8.85711052e-04
# iteration   102: delta_max = 2.91118703e-02: time = 9.16054007e-04
# iteration   103: delta_max = 2.85508191e-02: time = 8.91672913e-04
# iteration   104: delta_max = 2.81378445e-02: time = 8.83489382e-04
# iteration   105: delta_max = 2.08499562e-02: time = 8.93034972e-04
# iteration   106: delta_max = 1.60991695e-02: time = 8.85239337e-04
# iteration   107: delta_max = 1.53738580e-02: time = 8.96212645e-04
# iteration   108: delta_max = 1.42522188e-02: time = 9.03903041e-04
# iteration   109: delta_max = 1.32891291e-02: time = 8.84683803e-04
# iteration   110: delta_max = 5.03312248e-03: time = 9.04249027e-04
# iteration   111: delta_max = 5.03312248e-03: time = 9.04019922e-04
# iteration   112: delta_max = 5.03312229e-03: time = 9.09511931e-04
# iteration   113: delta_max = 5.03312229e-03: time = 9.10729170e-04
# iteration   114: delta_max = 4.92126013e-03: time = 9.14385077e-04
# iteration   115: delta_max = 4.92126013e-03: time = 9.06674657e-04
# iteration   116: delta_max = 4.91950875e-03: time = 9.10485629e-04
# iteration   117: delta_max = 4.91950875e-03: time = 9.07860696e-04
# iteration   118: delta_max = 4.91793710e-03: time = 9.10741277e-04
# iteration   119: delta_max = 4.91793710e-03: time = 9.12846066e-04
# iteration   120: delta_max = 4.80244599e-03: time = 9.16479621e-04
# iteration   121: delta_max = 4.80244599e-03: time = 9.07287002e-04
# iteration   122: delta_max = 4.69143537e-03: time = 9.15234908e-04
# iteration   123: delta_max = 4.69143537e-03: time = 9.19525977e-04
# iteration   124: delta_max = 4.69128338e-03: time = 9.20262188e-04
# iteration   125: delta_max = 4.69128338e-03: time = 9.14006960e-04
# iteration   126: delta_max = 4.69081678e-03: time = 9.21407249e-04
# iteration   127: delta_max = 4.69081678e-03: time = 9.24915075e-04
# iteration   128: delta_max = 4.69063561e-03: time = 9.21133906e-04
# iteration   129: delta_max = 4.69063561e-03: time = 9.19788145e-04
# iteration   130: delta_max = 3.54273473e-03: time = 9.24966298e-04
# iteration   131: delta_max = 3.54273257e-03: time = 9.20764636e-04
# iteration   132: delta_max = 2.88623897e-03: time = 9.30050854e-04
# iteration   133: delta_max = 2.86975737e-03: time = 9.25460830e-04
# iteration   134: delta_max = 2.85231171e-03: time = 9.33792908e-04
# iteration   135: delta_max = 2.56114239e-03: time = 9.30489972e-04
# iteration   136: delta_max = 2.33383515e-03: time = 1.00488402e-03
# iteration   137: delta_max = 2.33231956e-03: time = 9.18588135e-04
# iteration   138: delta_max = 2.31563767e-03: time = 9.29973088e-04
# iteration   139: delta_max = 2.31316460e-03: time = 9.28291120e-04
# iteration   140: delta_max = 1.23665095e-03: time = 9.46940854e-04
# iteration   141: delta_max = 1.23665093e-03: time = 9.41585284e-04
# iteration   142: delta_max = 1.21133132e-03: time = 9.53982119e-04
# iteration   143: delta_max = 1.21069427e-03: time = 9.65988263e-04
# iteration   144: delta_max = 1.20592344e-03: time = 9.48733650e-04
# iteration   145: delta_max = 1.20422603e-03: time = 1.35790184e-03
# iteration   146: delta_max = 1.20013891e-03: time = 8.48662108e-04
# iteration   147: delta_max = 1.19859570e-03: time = 9.50337853e-04
# iteration   148: delta_max = 1.19794739e-03: time = 9.45149921e-04
# iteration   149: delta_max = 3.80390143e-04: time = 9.20037273e-04
# iteration   150: delta_max = 3.80389220e-04: time = 9.32094175e-04
# iteration   151: delta_max = 2.49862117e-04: time = 9.63025726e-04
# iteration   152: delta_max = 2.49862117e-04: time = 9.52660106e-04
# iteration   153: delta_max = 2.49862117e-04: time = 9.48920846e-04
# iteration   154: delta_max = 2.49862117e-04: time = 9.58750024e-04
# iteration   155: delta_max = 2.49792289e-04: time = 9.58766323e-04
# iteration   156: delta_max = 2.49792289e-04: time = 9.54817981e-04
# iteration   157: delta_max = 2.49783757e-04: time = 9.51755792e-04
# iteration   158: delta_max = 2.49783757e-04: time = 9.63957049e-04
# iteration   159: delta_max = 2.49779526e-04: time = 9.55350231e-04
# iteration   160: delta_max = 2.49779526e-04: time = 9.54333227e-04
# iteration   161: delta_max = 2.45095035e-04: time = 9.63125378e-04
# iteration   162: delta_max = 2.45095035e-04: time = 9.56588890e-04
# iteration   163: delta_max = 2.45094353e-04: time = 9.65003856e-04
# iteration   164: delta_max = 2.45094353e-04: time = 9.66834836e-04
# iteration   165: delta_max = 2.45080140e-04: time = 9.64829698e-04
# iteration   166: delta_max = 2.45080140e-04: time = 9.59947705e-04
# iteration   167: delta_max = 2.40355464e-04: time = 9.62358899e-04
# iteration   168: delta_max = 2.40355464e-04: time = 9.68900044e-04
# iteration   169: delta_max = 2.32091950e-04: time = 9.36670229e-04
# iteration   170: delta_max = 2.12344658e-04: time = 9.43624880e-04
# iteration   171: delta_max = 2.12336251e-04: time = 9.36735887e-04
# iteration   172: delta_max = 1.91869924e-04: time = 9.43176914e-04
# iteration   173: delta_max = 1.91040187e-04: time = 9.49844252e-04
# iteration   174: delta_max = 1.55023405e-04: time = 9.48838890e-04
# iteration   175: delta_max = 1.55017602e-04: time = 9.47422814e-04
# iteration   176: delta_max = 1.53733176e-04: time = 9.56290867e-04
# iteration   177: delta_max = 1.42408878e-04: time = 9.55885276e-04
# iteration   178: delta_max = 1.32287621e-04: time = 9.53427050e-04
# iteration   179: delta_max = 1.31701290e-04: time = 1.03517994e-03
# iteration   180: delta_max = 1.29034789e-04: time = 9.58160032e-04
# iteration   181: delta_max = 1.28462498e-04: time = 9.56994016e-04
# iteration   182: delta_max = 9.30500608e-05: time = 9.67463944e-04
# iteration   183: delta_max = 9.30500608e-05: time = 9.64132138e-04
# iteration   184: delta_max = 9.24599815e-05: time = 9.61837824e-04
# iteration   185: delta_max = 9.24599815e-05: time = 9.66964290e-04
# iteration   186: delta_max = 8.70818009e-05: time = 9.69544984e-04
# iteration   187: delta_max = 8.70818009e-05: time = 9.63437371e-04
# iteration   188: delta_max = 8.70754464e-05: time = 9.65380110e-04
# iteration   189: delta_max = 8.70754464e-05: time = 9.70150810e-04
# iteration   190: delta_max = 8.64419735e-05: time = 9.72990878e-04
# iteration   191: delta_max = 8.64419735e-05: time = 9.71036963e-04
# iteration   192: delta_max = 8.34945339e-05: time = 9.78937838e-04
# iteration   193: delta_max = 8.34945339e-05: time = 9.71922651e-04
# iteration   194: delta_max = 7.97910179e-05: time = 9.72481910e-04
# iteration   195: delta_max = 7.97910179e-05: time = 9.79215838e-04
# iteration   196: delta_max = 7.96822066e-05: time = 9.76320822e-04
# iteration   197: delta_max = 7.96822066e-05: time = 9.74231865e-04
# iteration   198: delta_max = 7.95896207e-05: time = 9.75935720e-04
# iteration   199: delta_max = 7.95896207e-05: time = 9.74364113e-04
# iteration   200: delta_max = 6.32786869e-05: time = 9.76766925e-04
# iteration   201: delta_max = 6.32786848e-05: time = 9.83814709e-04
# iteration   202: delta_max = 6.30375806e-05: time = 9.84590035e-04
# iteration   203: delta_max = 6.30375806e-05: time = 9.83299222e-04
# iteration   204: delta_max = 5.54386440e-05: time = 9.72349197e-04
# iteration   205: delta_max = 5.54348900e-05: time = 9.73034650e-04
# iteration   206: delta_max = 4.49256764e-05: time = 9.81866848e-04
# iteration   207: delta_max = 4.48381567e-05: time = 9.78632830e-04
# iteration   208: delta_max = 3.58518830e-05: time = 9.86854080e-04
# iteration   209: delta_max = 3.10448412e-05: time = 9.80281737e-04
# iteration   210: delta_max = 3.09933203e-05: time = 9.85709019e-04
# iteration   211: delta_max = 2.96257767e-05: time = 9.86042898e-04
# iteration   212: delta_max = 2.88379310e-05: time = 9.98244155e-04
# iteration   213: delta_max = 2.86854225e-05: time = 1.00258412e-03
# iteration   214: delta_max = 2.75021782e-05: time = 9.83353704e-04
# iteration   215: delta_max = 2.74957884e-05: time = 9.89596825e-04
# iteration   216: delta_max = 2.61943420e-05: time = 1.00762211e-03
# iteration   217: delta_max = 2.60798119e-05: time = 1.01264799e-03
# iteration   218: delta_max = 2.60791424e-05: time = 1.00470195e-03
# iteration   219: delta_max = 2.59766059e-05: time = 1.01466337e-03
# iteration   220: delta_max = 2.50365661e-05: time = 1.00943726e-03
# iteration   221: delta_max = 2.50365340e-05: time = 1.00666098e-03
# iteration   222: delta_max = 2.47733792e-05: time = 1.08200824e-03
# iteration   223: delta_max = 2.38356521e-05: time = 9.94892791e-04
# iteration   224: delta_max = 2.38356521e-05: time = 9.93368216e-04
# iteration   225: delta_max = 2.36858088e-05: time = 9.95563809e-04
# iteration   226: delta_max = 2.36858088e-05: time = 9.96285584e-04
# iteration   227: delta_max = 2.36801462e-05: time = 1.00117177e-03
# iteration   228: delta_max = 2.36801462e-05: time = 1.00076385e-03
# iteration   229: delta_max = 2.36769154e-05: time = 1.00038806e-03
# iteration   230: delta_max = 2.36769154e-05: time = 1.00479182e-03
# iteration   231: delta_max = 2.36051494e-05: time = 1.00361975e-03
# iteration   232: delta_max = 2.36051494e-05: time = 1.00164581e-03
# iteration   233: delta_max = 2.36001901e-05: time = 1.00276014e-03
# iteration   234: delta_max = 2.36001901e-05: time = 1.00964727e-03
# iteration   235: delta_max = 2.35981595e-05: time = 1.01039419e-03
# iteration   236: delta_max = 2.35981595e-05: time = 1.00774318e-03
# iteration   237: delta_max = 2.35486074e-05: time = 1.02248508e-03
# iteration   238: delta_max = 2.35486074e-05: time = 1.02554495e-03
# iteration   239: delta_max = 2.35482754e-05: time = 1.02466904e-03
# iteration   240: delta_max = 2.35482553e-05: time = 1.02565996e-03
# iteration   241: delta_max = 2.34294822e-05: time = 1.02561107e-03
# iteration   242: delta_max = 2.34294813e-05: time = 1.03893783e-03
# iteration   243: delta_max = 2.33105473e-05: time = 1.04413787e-03
# iteration   244: delta_max = 2.33105464e-05: time = 1.03189703e-03
# iteration   245: delta_max = 2.33101434e-05: time = 1.02705276e-03
# iteration   246: delta_max = 2.25312558e-05: time = 1.00200996e-03
# iteration   247: delta_max = 1.86255700e-05: time = 1.01698237e-03
# iteration   248: delta_max = 1.86255700e-05: time = 1.01104612e-03
# iteration   249: delta_max = 1.71932627e-05: time = 1.01048313e-03
# iteration   250: delta_max = 1.66227948e-05: time = 1.43576274e-03
# iteration   251: delta_max = 1.62965081e-05: time = 9.38002951e-04
# iteration   252: delta_max = 1.47489804e-05: time = 1.03600603e-03
# iteration   253: delta_max = 1.47489804e-05: time = 1.03382813e-03
# iteration   254: delta_max = 1.46987675e-05: time = 1.03170285e-03
# iteration   255: delta_max = 1.46987675e-05: time = 1.04235485e-03
# iteration   256: delta_max = 1.17860734e-05: time = 1.01771904e-03
# iteration   257: delta_max = 1.17849091e-05: time = 1.03050889e-03
# iteration   258: delta_max = 1.17706525e-05: time = 1.03614293e-03
# iteration   259: delta_max = 1.15763004e-05: time = 1.03920605e-03
# iteration   260: delta_max = 7.61829561e-06: time = 1.05527090e-03
 # Orthogonalising Cholesky vectors.
 # Time to orthogonalise: 0.003992
nelec: (5, 5)
nbasis: 50
chol.shape: (260, 2500)

******** <class 'pyscf.cc.ccsd.CCSD'> ********
CC2 = 0
CCSD nocc = 5, nmo = 50
frozen orbitals 0
max_cycle = 50
direct = 0
conv_tol = 1e-07
conv_tol_normt = 1e-05
diis_space = 6
diis_start_cycle = 0
diis_start_energy_diff = 1e+09
max_memory 4000 MB (current use 548 MB)
    CPU time for CCSD integral transformation      0.95 sec, wall time      0.03 sec
Init t2, MP2 energy = -5.06799131897171  E_corr(MP2) -0.210252694026316
    CPU time for init mp2      0.02 sec, wall time      0.00 sec
Init E_corr(CCSD) = -0.210252694027843
cycle = 1  E_corr(CCSD) = -0.264389322392358  dE = -0.0541366284  norm(t1,t2) = 0.146847
    CPU time for CCSD iter      7.00 sec, wall time      0.19 sec
cycle = 2  E_corr(CCSD) = -0.296187199436617  dE = -0.031797877  norm(t1,t2) = 0.10138
    CPU time for CCSD iter      5.74 sec, wall time      0.16 sec
cycle = 3  E_corr(CCSD) = -0.331644164091434  dE = -0.0354569647  norm(t1,t2) = 0.061704
    CPU time for CCSD iter     11.61 sec, wall time      0.61 sec
cycle = 4  E_corr(CCSD) = -0.345347098629528  dE = -0.0137029345  norm(t1,t2) = 0.0362539
    CPU time for CCSD iter      7.59 sec, wall time      0.21 sec
cycle = 5  E_corr(CCSD) = -0.346201134631346  dE = -0.000854036002  norm(t1,t2) = 0.0171327
    CPU time for CCSD iter      5.76 sec, wall time      0.16 sec
cycle = 6  E_corr(CCSD) = -0.347808220683447  dE = -0.00160708605  norm(t1,t2) = 0.0153891
    CPU time for CCSD iter      7.87 sec, wall time      0.22 sec
cycle = 7  E_corr(CCSD) = -0.352173979813827  dE = -0.00436575913  norm(t1,t2) = 0.0127309
    CPU time for CCSD iter      5.45 sec, wall time      0.15 sec
cycle = 8  E_corr(CCSD) = -0.353492690865824  dE = -0.00131871105  norm(t1,t2) = 0.00894721
    CPU time for CCSD iter      5.19 sec, wall time      0.14 sec
cycle = 9  E_corr(CCSD) = -0.354681962436891  dE = -0.00118927157  norm(t1,t2) = 0.00658835
    CPU time for CCSD iter      6.48 sec, wall time      0.18 sec
cycle = 10  E_corr(CCSD) = -0.355142123061065  dE = -0.000460160624  norm(t1,t2) = 0.00447324
    CPU time for CCSD iter      5.70 sec, wall time      0.16 sec
cycle = 11  E_corr(CCSD) = -0.355760964935762  dE = -0.000618841875  norm(t1,t2) = 0.00339103
    CPU time for CCSD iter      6.46 sec, wall time      0.18 sec
cycle = 12  E_corr(CCSD) = -0.356835633620036  dE = -0.00107466868  norm(t1,t2) = 0.00250243
    CPU time for CCSD iter      4.99 sec, wall time      0.14 sec
cycle = 13  E_corr(CCSD) = -0.357432445759206  dE = -0.000596812139  norm(t1,t2) = 0.00126845
    CPU time for CCSD iter      6.91 sec, wall time      0.19 sec
cycle = 14  E_corr(CCSD) = -0.357606748627171  dE = -0.000174302868  norm(t1,t2) = 0.00085612
    CPU time for CCSD iter      6.16 sec, wall time      0.17 sec
cycle = 15  E_corr(CCSD) = -0.357748917623185  dE = -0.000142168996  norm(t1,t2) = 0.00048793
    CPU time for CCSD iter      5.75 sec, wall time      0.16 sec
cycle = 16  E_corr(CCSD) = -0.357835610918857  dE = -8.66932957e-05  norm(t1,t2) = 0.000383452
    CPU time for CCSD iter      5.56 sec, wall time      0.15 sec
cycle = 17  E_corr(CCSD) = -0.357916936543334  dE = -8.13256245e-05  norm(t1,t2) = 0.000294806
    CPU time for CCSD iter      7.17 sec, wall time      0.20 sec
cycle = 18  E_corr(CCSD) = -0.357921853295385  dE = -4.91675205e-06  norm(t1,t2) = 0.000204366
    CPU time for CCSD iter      5.87 sec, wall time      0.16 sec
cycle = 19  E_corr(CCSD) = -0.357943299809172  dE = -2.14465138e-05  norm(t1,t2) = 0.000166833
    CPU time for CCSD iter      6.88 sec, wall time      0.19 sec
cycle = 20  E_corr(CCSD) = -0.357964454553826  dE = -2.11547447e-05  norm(t1,t2) = 0.000133848
    CPU time for CCSD iter      6.30 sec, wall time      0.18 sec
cycle = 21  E_corr(CCSD) = -0.358001338972767  dE = -3.68844189e-05  norm(t1,t2) = 0.000114488
    CPU time for CCSD iter      6.13 sec, wall time      0.17 sec
cycle = 22  E_corr(CCSD) = -0.358046178742174  dE = -4.48397694e-05  norm(t1,t2) = 8.59362e-05
    CPU time for CCSD iter      5.48 sec, wall time      0.15 sec
cycle = 23  E_corr(CCSD) = -0.358060498957656  dE = -1.43202155e-05  norm(t1,t2) = 5.42123e-05
    CPU time for CCSD iter      7.60 sec, wall time      0.21 sec
cycle = 24  E_corr(CCSD) = -0.358078855004793  dE = -1.83560471e-05  norm(t1,t2) = 4.25715e-05
    CPU time for CCSD iter      5.02 sec, wall time      0.14 sec
cycle = 25  E_corr(CCSD) = -0.35809825957876  dE = -1.9404574e-05  norm(t1,t2) = 2.99575e-05
    CPU time for CCSD iter      9.57 sec, wall time      0.27 sec
cycle = 26  E_corr(CCSD) = -0.358101763018403  dE = -3.50343964e-06  norm(t1,t2) = 1.74286e-05
    CPU time for CCSD iter      5.87 sec, wall time      0.16 sec
cycle = 27  E_corr(CCSD) = -0.35810053948868  dE = 1.22352972e-06  norm(t1,t2) = 1.06873e-05
    CPU time for CCSD iter      5.01 sec, wall time      0.14 sec
cycle = 28  E_corr(CCSD) = -0.358100855410607  dE = -3.15921927e-07  norm(t1,t2) = 6.77298e-06
    CPU time for CCSD iter      4.59 sec, wall time      0.13 sec
cycle = 29  E_corr(CCSD) = -0.358100850609437  dE = 4.80117007e-09  norm(t1,t2) = 4.73311e-06
    CPU time for CCSD iter      6.55 sec, wall time      0.18 sec
    CPU time for CCSD    186.30 sec, wall time      5.48 sec
CCSD converged
E(CCSD) = -5.215839475554827  E_corr = -0.3581008506094372
    CPU time for CCSD integral transformation      3.98 sec, wall time      0.11 sec
max_memory 3424 MB (575 MB in use)
    CPU time for CCSD(T)      3.01 sec, wall time      0.09 sec
CCSD(T) correction = -0.0125945079741339
CCSD(T) energy -5.22843398352896
